 &FCI NORB=  10,NELEC=14,MS2=0,
  ORBSYM=1,1,1,1,1,1,1,1,1,1,
  ISYM=1,
 &END
 2.306865664447673    1    1    1    1
 -3.708665590341359e-12    1    1    2    1
 2.306351160735387    1    1    2    2
 -0.191440466598989    1    1    3    1
 2.087262654382194e-13    1    1    3    2
 0.7868840776031897    1    1    3    3
 5.698546018742534e-13    1    1    4    1
 -0.1915180728917881    1    1    4    2
 -3.499978085130806e-13    1    1    4    3
 0.6671458921502078    1    1    4    4
 0.6879790991819599    1    1    5    5
 0.6879790991819603    1    1    6    6
 -0.08358407750287104    1    1    7    1
 5.484501741648273e-14    1    1    7    2
 -0.06550121646318469    1    1    7    3
 -5.125344593182035e-13    1    1    7    4
 0.6854056843138092    1    1    7    7
 4.395650510247151e-13    1    1    8    5
 3.460981501390847e-13    1    1    8    6
 0.7276833321892711    1    1    8    8
 -3.45931616685391e-13    1    1    9    5
 4.395962760472827e-13    1    1    9    6
 0.7276833321892711    1    1    9    9
 4.372384615827785e-13    1    1   10    1
 -0.1312665818548978    1    1   10    2
 -4.600139713595297e-13    1    1   10    3
 0.04917036956781812    1    1   10    4
 3.922695501756834e-13    1    1   10    7
 0.8958031735768655    1    1   10   10
 -3.70927060225866e-12    2    1    1    1
 1.824933981817309    2    1    2    1
 3.705843249456053e-12    2    1    2    2
 2.015741403072033e-13    2    1    3    1
 -0.1983666215425549    2    1    3    2
 -0.18461395011749    2    1    4    1
 -1.87400659226733e-13    2    1    4    2
 0.1721198434090962    2    1    4    3
 1.790377789850147e-15    2    1    5    4
 7.039692179883206e-14    2    1    7    1
 -0.06855659345356634    2    1    7    2
 0.2521981419439311    2    1    7    4
 -1.332267629550188e-15    2    1    7    7
 -0.2163528735372502    2    1    8    5
 -0.1703250822098141    2    1    8    6
 1.428737377030395e-15    2    1    8    7
 0.170325082209814    2    1    9    5
 -0.2163528735372502    2    1    9    6
 -1.274566052724305e-15    2    1    9    7
 -0.149612604366985    2    1   10    1
 -1.520250939024415e-13    2    1   10    2
 0.226332877183519    2    1   10    3
 -1.36193235114566e-15    2    1   10    5
 -0.1933359536734655    2    1   10    7
 2.306351160735386    2    2    1    1
 3.705944730779398e-12    2    2    2    1
 2.305838106377281    2    2    2    2
 -0.1913035533063537    2    2    3    1
 -5.971143718364047e-13    2    2    3    2
 0.7869699869626158    2    2    3    3
 -1.802825467037139e-13    2    2    4    1
 -0.1914693443790486    2    2    4    2
 3.493039191226899e-13    2    2    4    3
 0.6670820515706286    2    2    4    4
 0.6880230406586384    2    2    5    5
 0.6880230406586388    2    2    6    6
 -0.08364308789204289    2    2    7    1
 -2.237003984828512e-13    2    2    7    2
 -0.06555911997087233    2    2    7    3
 5.123401702888941e-13    2    2    7    4
 0.6853423268081698    2    2    7    7
 -4.396205621759464e-13    2    2    8    5
 -3.460981501390847e-13    2    2    8    6
 0.7277125780396618    2    2    8    8
 3.461397835025082e-13    2    2    9    5
 -4.394713759570124e-13    2    2    9    6
 0.7277125780396618    2    2    9    9
 -1.707120772867499e-13    2    2   10    1
 -0.1310504915873257    2    2   10    2
 4.5969478223995e-13    2    2   10    3
 0.04924693669100558    2    2   10    4
 -3.929079284148429e-13    2    2   10    7
 0.8958777131362086    2    2   10   10
 -0.191440466598989    3    1    1    1
 2.014416262377701e-13    3    1    2    1
 -0.1913035533063537    3    1    2    2
 0.0309482307898173    3    1    3    1
 0.002022297985084653    3    1    3    3
 -5.266138341912009e-14    3    1    4    1
 0.02581901859912867    3    1    4    2
 8.41297517761852e-15    3    1    4    3
 -0.01256365236949518    3    1    4    4
 -0.001513885475077068    3    1    5    5
 -0.001513885475077069    3    1    6    6
 0.006565206510447357    3    1    7    1
 -0.007235154089188561    3    1    7    3
 1.413485214291077e-14    3    1    7    4
 -0.008976129056388374    3    1    7    7
 -7.060324547225605e-15    3    1    8    5
 -5.560222421374661e-15    3    1    8    6
 -0.005948816217118284    3    1    8    8
 5.559463479853921e-15    3    1    9    5
 -7.064986616567293e-15    3    1    9    6
 -0.005948816217118284    3    1    9    9
 -5.644042938362463e-14    3    1   10    1
 0.02801217340663277    3    1   10    2
 5.069295677673225e-15    3    1   10    3
 0.002876419332623071    3    1   10    4
 -6.977925182116707e-15    3    1   10    7
 -0.005516368287878693    3    1   10   10
 2.086961042890335e-13    3    2    1    1
 -0.1983666215425548    3    2    2    1
 -5.972177810067373e-13    3    2    2    2
 0.03068704056892584    3    2    3    2
 2.155149973412374e-15    3    2    3    3
 0.0260148600619439    3    2    4    1
 5.263523042984067e-14    3    2    4    2
 -0.008300134306770339    3    2    4    3
 -1.272354617498639e-14    3    2    4    4
 -1.477550720663245e-15    3    2    5    5
 -1.4622634700312e-15    3    2    6    6
 0.007024222998447779    3    2    7    2
 -7.353492814665685e-15    3    2    7    3
 -0.0138780026892578    3    2    7    4
 -8.998878031629687e-15    3    2    7    7
 0.006946098550025208    3    2    8    5
 0.005468357259266152    3    2    8    6
 -5.944897352172518e-15    3    2    8    8
 -0.00546835725926615    3    2    9    5
 0.006946098550025209    3    2    9    6
 -5.957907778242344e-15    3    2    9    9
 0.02753898357225307    3    2   10    1
 5.640571289124846e-14    3    2   10    2
 -0.004995123617625824    3    2   10    3
 2.981989655204131e-15    3    2   10    4
 0.006826296324286114    3    2   10    7
 -5.55805401702969e-15    3    2   10   10
 0.7868840776031898    3    3    1    1
 0.7869699869626159    3    3    2    2
 0.002022297985084634    3    3    3    1
 2.16233281280509e-15    3    3    3    2
 0.7472181500302766    3    3    3    3
 1.868242973518397e-14    3    3    4    1
 -0.01827191418731493    3    3    4    2
 0.5119501394611869    3    3    4    4
 0.6171757554628706    3    3    5    5
 0.617175755462871    3    3    6    6
 -0.02549703896179411    3    3    7    1
 -2.591243192240356e-14    3    3    7    2
 -0.1088646551953436    3    3    7    3
 0.542436778571179    3    3    7    7
 0.596036135160851    3    3    8    8
 0.596036135160851    3    3    9    9
 -2.250310398091426e-14    3    3   10    1
 0.02213387659981861    3    3   10    2
 0.07353187639815156    3    3   10    4
 0.7241338005117466    3    3   10   10
 5.698510121486229e-13    4    1    1    1
 -0.1846139501174901    4    1    2    1
 -1.803885681236558e-13    4    1    2    2
 -5.265491462850191e-14    4    1    3    1
 0.02601486006194391    4    1    3    2
 1.86838391980082e-14    4    1    3    3
 0.02871558478701927    4    1    4    1
 -0.004828713618123874    4    1    4    3
 5.24916481808857e-15    4    1    4    4
 7.985474261007486e-15    4    1    5    5
 7.990271855620734e-15    4    1    6    6
 -3.052593324192861e-14    4    1    7    1
 0.01478375452012273    4    1    7    2
 -4.804587717260889e-15    4    1    7    3
 0.002323559565355345    4    1    7    4
 3.951700078275167e-15    4    1    7    7
 0.00215776915961648    4    1    8    5
 0.001698716561942039    4    1    8    6
 8.023529757261727e-15    4    1    8    8
 -0.001698716561942039    4    1    9    5
 0.002157769159616481    4    1    9    6
 8.018976108137288e-15    4    1    9    9
 0.01482120306052015    4    1   10    1
 -0.01144831357445155    4    1   10    3
 7.659454667741095e-15    4    1   10    4
 0.00170830060395364    4    1   10    7
 2.143858007785937e-14    4    1   10   10
 -0.1915180728917881    4    2    1    1
 -1.874996087685983e-13    4    2    2    1
 -0.1914693443790487    4    2    2    2
 0.02581901859912868    4    2    3    1
 5.265309943689594e-14    4    2    3    2
 -0.0182719141873149    4    2    3    3
 0.02891148239791241    4    2    4    2
 -4.870832469999753e-15    4    2    4    3
 -0.0049101511313386    4    2    4    4
 -0.007728678125729386    4    2    5    5
 -0.007728678125729391    4    2    6    6
 0.01521576171553102    4    2    7    1
 3.041879627959515e-14    4    2    7    2
 0.004775180513357454    4    2    7    3
 2.419288727684155e-15    4    2    7    4
 -0.003724264940384337    4    2    7    7
 2.169271706708997e-15    4    2    8    5
 1.708052102533664e-15    4    2    8    6
 -0.007743252746406311    4    2    8    8
 -1.709136304706149e-15    4    2    9    5
 2.168946446057252e-15    4    2    9    6
 -0.007743252746406311    4    2    9    9
 0.01429094096865752    4    2   10    2
 -1.161527471427171e-14    4    2   10    3
 -0.007462147318434175    4    2   10    4
 1.747733902046633e-15    4    2   10    7
 -0.02094711835376032    4    2   10   10
 -3.500593742558188e-13    4    3    1    1
 0.1721198434090961    4    3    2    1
 3.493259961894271e-13    4    3    2    2
 8.418064151565624e-15    4    3    3    1
 -0.008300134306770336    4    3    3    2
 -0.004828713618123873    4    3    4    1
 -4.877066632491545e-15    4    3    4    2
 0.05647626742435904    4    3    4    3
 0.000777877774698121    4    3    7    2
 0.09308563583870688    4    3    7    4
 -0.07597403352874091    4    3    8    5
 -0.05981100826176915    4    3    8    6
 0.05981100826176913    4    3    9    5
 -0.07597403352874092    4    3    9    6
 -0.008134532441245389    4    3   10    1
 -8.298591848421299e-15    4    3   10    2
 0.05920441514899733    4    3   10    3
 -0.05481457807965483    4    3   10    7
 0.6671458921502077    4    4    1    1
 0.6670820515706286    4    4    2    2
 -0.01256365236949516    4    4    3    1
 -1.269514007806727e-14    4    4    3    2
 0.5119501394611869    4    4    3    3
 5.267270994369078e-15    4    4    4    1
 -0.00491015113133861    4    4    4    2
 0.5453708953383131    4    4    4    4
 0.5100096682483707    4    4    5    5
 0.510009668248371    4    4    6    6
 0.004206978893553499    4    4    7    1
 4.332471881252076e-15    4    4    7    2
 0.001135194731309672    4    4    7    3
 0.5570968878592951    4    4    7    7
 0.5358793067768522    4    4    8    8
 0.5358793067768524    4    4    9    9
 1.638576427320793e-14    4    4   10    1
 -0.01622351951586643    4    4   10    2
 -0.01981441502460458    4    4   10    4
 0.5594683590134949    4    4   10   10
 0.009770974882974612    5    1    5    1
 0.0166207301027445    5    1    5    3
 -1.140537317367851e-14    5    1    5    4
 0.004861044031656148    5    1    7    5
 1.850957402757189e-14    5    1    8    1
 -0.009340537903067691    5    1    8    2
 9.126054946462236e-15    5    1    8    3
 -0.0122641264984646    5    1    8    4
 5.625708232592785e-15    5    1    8    7
 -1.457146713403426e-14    5    1    9    1
 0.007353393833939408    5    1    9    2
 -7.180128887285253e-15    5    1    9    3
 0.009655006286398555    5    1    9    4
 -4.429833236341274e-15    5    1    9    7
 -8.69573510420274e-15    5    1   10    5
 -0.008735326418748284    5    1   10    8
 0.006876937505277439    5    1   10    9
 0.00926976155247828    5    2    5    2
 1.693502109378908e-14    5    2    5    3
 0.01128142281405521    5    2    5    4
 4.924879948298155e-15    5    2    7    5
 -0.008886653328767567    5    2    8    1
 -1.852071081676239e-14    5    2    8    2
 -0.008986251364022193    5    2    8    3
 -1.248410012519297e-14    5    2    8    4
 -0.005521076388096467    5    2    8    7
 0.006996070512240497    5    2    9    1
 1.458130626874957e-14    5    2    9    2
 0.007074479655901625    5    2    9    3
 9.826395339779248e-15    5    2    9    4
 0.004346500114902728    5    2    9    7
 0.008593671482768185    5    2   10    5
 -8.889590452643148e-15    5    2   10    8
 6.995922938179966e-15    5    2   10    9
 0.0166207301027445    5    3    5    1
 1.693567161509257e-14    5    3    5    2
 0.1049701474299303    5    3    5    3
 0.01384511582678489    5    3    7    5
 1.50350279372758e-14    5    3    8    1
 -0.01480935792323968    5    3    8    2
 -0.05822356255321833    5    3    8    4
 -1.183460881376552e-14    5    3    9    1
 0.01165875481342321    5    3    9    2
 0.0458368447633201    5    3    9    4
 -0.04842387251287308    5    3   10    8
 0.03812198068750221    5    3   10    9
 1.790377789850146e-15    5    4    2    1
 -1.140397726338144e-14    5    4    5    1
 0.01128142281405521    5    4    5    2
 0.05087367798540698    5    4    5    4
 1.241296979168248e-15    5    4    7    4
 -0.01058312934836092    5    4    8    1
 -1.077070663289392e-14    5    4    8    2
 -0.0337283270750885    5    4    8    3
 -1.100694226612685e-15    5    4    8    5
 -0.03074677142020595    5    4    8    7
 0.008331631315200974    5    4    9    1
 8.479516391888924e-15    5    4    9    2
 0.02655282542792226    5    4    9    3
 0.02420557806426027    5    4    9    7
 0.02383572756838217    5    4   10    5
 -1.049515607584169e-15    5    4   10    7
 0.68797909918196    5    5    1    1
 0.6880230406586383    5    5    2    2
 -0.001513885475077064    5    5    3    1
 -1.475382316318274e-15    5    5    3    2
 0.6171757554628707    5    5    3    3
 7.992521575128642e-15    5    5    4    1
 -0.007728678125729381    5    5    4    2
 0.5100096682483706    5    5    4    4
 0.5880333086470337    5    5    5    5
 0.5400521987323085    5    5    6    6
 -0.008948140978262846    5    5    7    1
 -9.113369781044156e-15    5    5    7    2
 -0.04695975965789831    5    5    7    3
 0.5177651312330854    5    5    7    7
 0.5695719077520133    5    5    8    8
 -0.02223836721717928    5    5    9    8
 0.5588312427367383    5    5    9    9
 -6.592762360341231e-15    5    5   10    1
 0.006439462220086878    5    5   10    2
 0.04167203528547824    5    5   10    4
 0.6199586921604168    5    5   10   10
 0.009770974882974617    6    1    6    1
 0.01662073010274451    6    1    6    3
 -1.143377927059763e-14    6    1    6    4
 0.004861044031656154    6    1    7    6
 1.457155776655962e-14    6    1    8    1
 -0.007353393833939411    6    1    8    2
 7.183598334237207e-15    6    1    8    3
 -0.009655006286398558    6    1    8    4
 4.432652161989736e-15    6    1    8    7
 1.851399215142477e-14    6    1    9    1
 -0.009340537903067691    6    1    9    2
 9.123019180379277e-15    6    1    9    3
 -0.01226412649846461    6    1    9    4
 5.632213445627698e-15    6    1    9    7
 -8.720617544061282e-15    6    1   10    6
 -0.006876937505277446    6    1   10    8
 -0.008735326418748298    6    1   10    9
 0.009269761552478283    6    2    6    2
 1.690607289578372e-14    6    2    6    3
 0.01128142281405521    6    2    6    4
 4.91073110994722e-15    6    2    7    6
 -0.006996070512240499    6    2    8    1
 -1.457895659935388e-14    6    2    8    2
 -0.007074479655901626    6    2    8    3
 -9.820974328916821e-15    6    2    8    4
 -0.004346500114902731    6    2    8    7
 -0.00888665332876757    6    2    9    1
 -1.851710923267066e-14    6    2    9    2
 -0.008986251364022193    6    2    9    3
 -1.247461335618372e-14    6    2    9    4
 -0.005521076388096466    6    2    9    7
 0.008593671482768192    6    2   10    6
 -6.990068246448544e-15    6    2   10    8
 -8.87744738831131e-15    6    2   10    9
 0.01662073010274451    6    3    6    1
 1.690488027339399e-14    6    3    6    2
 0.1049701474299303    6    3    6    3
 0.0138451158267849    6    3    7    6
 1.18349239100219e-14    6    3    8    1
 -0.01165875481342322    6    3    8    2
 -0.04583684476332012    6    3    8    4
 1.503467557156975e-14    6    3    9    1
 -0.01480935792323968    6    3    9    2
 -0.05822356255321837    6    3    9    4
 -0.03812198068750226    6    3   10    8
 -0.04842387251287314    6    3   10    9
 -1.143257309568074e-14    6    4    6    1
 0.01128142281405521    6    4    6    2
 0.05087367798540703    6    4    6    4
 -0.008331631315200975    6    4    8    1
 -8.475038975729737e-15    6    4    8    2
 -0.02655282542792227    6    4    8    3
 -0.02420557806426029    6    4    8    7
 -0.01058312934836092    6    4    9    1
 -1.076025085819301e-14    6    4    9    2
 -0.03372832707508853    6    4    9    3
 -0.03074677142020598    6    4    9    7
 0.0238357275683822    6    4   10    6
 0.02399055495736287    6    5    6    5
 0.02223836721717936    6    5    8    8
 0.0053703325076373    6    5    9    8
 -0.02223836721717921    6    5    9    9
 0.6879790991819603    6    6    1    1
 0.6880230406586388    6    6    2    2
 -0.001513885475077066    6    6    3    1
 -1.454565634606553e-15    6    6    3    2
 0.6171757554628711    6    6    3    3
 7.99262999534589e-15    6    6    4    1
 -0.007728678125729381    6    6    4    2
 0.510009668248371    6    6    4    4
 0.5400521987323083    6    6    5    5
 0.5880333086470344    6    6    6    6
 -0.008948140978262867    6    6    7    1
 -9.124645483638005e-15    6    6    7    2
 -0.04695975965789832    6    6    7    3
 0.5177651312330858    6    6    7    7
 0.5588312427367388    6    6    8    8
 0.02223836721717928    6    6    9    8
 0.5695719077520136    6    6    9    9
 -6.56180838831677e-15    6    6   10    1
 0.006439462220086832    6    6   10    2
 0.04167203528547819    6    6   10    4
 0.6199586921604177    6    6   10   10
 -0.08358407750287099    7    1    1    1
 7.032784626198347e-14    7    1    2    1
 -0.08364308789204286    7    1    2    2
 0.006565206510447355    7    1    3    1
 -0.02549703896179408    7    1    3    3
 -3.051786355904012e-14    7    1    4    1
 0.01521576171553102    7    1    4    2
 0.004206978893553514    7    1    4    4
 -0.00894814097826286    7    1    5    5
 -0.008948140978262865    7    1    6    6
 0.01426986282763672    7    1    7    1
 0.01236104591110757    7    1    7    3
 -1.504070305802241e-14    7    1    7    4
 0.002700028103112938    7    1    7    7
 2.957486686105959e-15    7    1    8    5
 2.330384149540343e-15    7    1    8    6
 -0.0053577665102194    7    1    8    8
 -2.331034670843835e-15    7    1    9    5
 2.961145868438098e-15    7    1    9    6
 -0.0053577665102194    7    1    9    9
 1.129108534744609e-14    7    1   10    1
 -0.006121197116250109    7    1   10    2
 1.11344581558287e-14    7    1   10    3
 -0.01222982301532973    7    1   10    4
 3.440173493296506e-15    7    1   10    7
 -0.02288005252328559    7    1   10   10
 5.48498099288983e-14    7    2    1    1
 -0.06855659345356632    7    2    2    1
 -2.237816187780975e-13    7    2    2    2
 0.007024222998447786    7    2    3    2
 -2.592912863585983e-14    7    2    3    3
 0.01478375452012273    7    2    4    1
 3.042208954369408e-14    7    2    4    2
 0.0007778777746981268    7    2    4    3
 4.312088880409348e-15    7    2    4    4
 -9.124428643203508e-15    7    2    5    5
 -9.13142174721604e-15    7    2    6    6
 0.01331565198804718    7    2    7    2
 1.255549483825114e-14    7    2    7    3
 0.01487213164452307    7    2    7    4
 2.612493554821071e-15    7    2    7    7
 -0.00297169554551026    7    2    8    5
 -0.002339484934108939    7    2    8    6
 -5.491267163204583e-15    7    2    8    8
 0.002339484934108938    7    2    9    5
 -0.002971695545510261    7    2    9    6
 -5.486062992776652e-15    7    2    9    9
 -0.005030914003648144    7    2   10    1
 -1.136581334690995e-14    7    2   10    2
 -0.01092341405884514    7    2   10    3
 -1.239915288497873e-14    7    2   10    4
 -0.003404913988231133    7    2   10    7
 -2.334070436926794e-14    7    2   10   10
 -0.06550121646318473    7    3    1    1
 -0.06555911997087231    7    3    2    2
 -0.007235154089188559    7    3    3    1
 -7.35089072945172e-15    7    3    3    2
 -0.1088646551953436    7    3    3    3
 -4.817764161788377e-15    7    3    4    1
 0.004775180513357456    7    3    4    2
 0.001135194731309722    7    3    4    4
 -0.04695975965789832    7    3    5    5
 -0.04695975965789836    7    3    6    6
 0.01236104591110757    7    3    7    1
 1.255603693933738e-14    7    3    7    2
 0.05164607770549191    7    3    7    3
 -0.01617485682672806    7    3    7    7
 -0.02922830918125496    7    3    8    8
 -0.02922830918125496    7    3    9    9
 1.705695656874402e-14    7    3   10    1
 -0.0167871524329715    7    3   10    2
 -0.02972206255748037    7    3   10    4
 -0.08753998592074441    7    3   10   10
 -5.124697460010333e-13    7    4    1    1
 0.2521981419439312    7    4    2    1
 5.12265932933265e-13    7    4    2    2
 1.413222972890607e-14    7    4    3    1
 -0.0138780026892578    7    4    3    2
 0.002323559565355356    7    4    4    1
 2.416686642470189e-15    7    4    4    2
 0.09308563583870688    7    4    4    3
 1.241296979168248e-15    7    4    5    4
 -1.503793834248257e-14    7    4    7    1
 0.01487213164452308    7    4    7    2
 0.2235584888602651    7    4    7    4
 -0.1236913761625339    7    4    8    5
 -0.09737676911372903    7    4    8    6
 1.018703734485424e-15    7    4    8    7
 0.09737676911372899    7    4    9    5
 -0.1236913761625339    7    4    9    6
 -0.02624511337849733    7    4   10    1
 -2.662757167537499e-14    7    4   10    2
 0.05680773862047782    7    4   10    3
 -1.04001241856639e-15    7    4   10    5
 -0.1243795456013847    7    4   10    7
 0.004861044031656149    7    5    5    1
 4.923009699550618e-15    7    5    5    2
 0.01384511582678489    7    5    5    3
 0.02806054367652971    7    5    7    5
 4.979361107465552e-15    7    5    8    1
 -0.004885826862713669    7    5    8    2
 -0.02940976602611496    7    5    8    4
 -3.919492497488769e-15    7    5    9    1
 0.00384639616035118    7    5    9    2
 0.02315301264213148    7    5    9    4
 0.0003463295044412401    7    5   10    8
 -0.0002726499553770953    7    5   10    9
 0.004861044031656152    7    6    6    1
 4.911259658506306e-15    7    6    6    2
 0.0138451158267849    7    6    6    3
 0.02806054367652972    7    6    7    6
 3.920946006026257e-15    7    6    8    1
 -0.003846396160351181    7    6    8    2
 -0.02315301264213149    7    6    8    4
 4.982634042773743e-15    7    6    9    1
 -0.00488582686271367    7    6    9    2
 -0.02940976602611498    7    6    9    4
 0.000272649955377091    7    6   10    8
 0.0003463295044412263    7    6   10    9
 0.6854056843138092    7    7    1    1
 -1.282163936654201e-15    7    7    2    1
 0.6853423268081698    7    7    2    2
 -0.008976129056388353    7    7    3    1
 -9.008852691616553e-15    7    7    3    2
 0.542436778571179    7    7    3    3
 3.968071531079698e-15    7    7    4    1
 -0.003724264940384331    7    7    4    2
 0.5570968878592952    7    7    4    4
 0.5177651312330854    7    7    5    5
 0.5177651312330858    7    7    6    6
 0.002700028103112965    7    7    7    1
 2.602952575703199e-15    7    7    7    2
 -0.01617485682672805    7    7    7    3
 0.584917996361513    7    7    7    7
 0.5405366748405795    7    7    8    8
 0.5405366748405795    7    7    9    9
 1.230780885194682e-14    7    7   10    1
 -0.01211853702367466    7    7   10    2
 -0.02745131919604376    7    7   10    4
 0.5940888591771086    7    7   10   10
 1.850794433618137e-14    8    1    5    1
 -0.008886653328767568    8    1    5    2
 1.503658308976696e-14    8    1    5    3
 -0.01058312934836092    8    1    5    4
 1.457267585004999e-14    8    1    6    1
 -0.006996070512240499    8    1    6    2
 1.183623511702425e-14    8    1    6    3
 -0.008331631315200975    8    1    6    4
 4.978656376053436e-15    8    1    7    5
 3.92004137483859e-15    8    1    7    6
 0.01381736176858661    8    1    8    1
 0.01344110584320161    8    1    8    3
 -1.882044867174137e-14    8    1    8    4
 0.008608741470998736    8    1    8    7
 -0.007769733266133283    8    1   10    5
 -0.00611676857194424    8    1   10    6
 -1.282567801963452e-14    8    1   10    8
 -0.00934053790306769    8    2    5    1
 -1.852291649055704e-14    8    2    5    2
 -0.01480935792323967    8    2    5    3
 -1.076721177495354e-14    8    2    5    4
 -0.00735339383393941    8    2    6    1
 -1.457793168948771e-14    8    2    6    2
 -0.01165875481342321    8    2    6    3
 -8.473907339712206e-15    8    2    6    4
 -0.004885826862713669    8    2    7    5
 -0.00384639616035118    8    2    7    6
 0.01449850429602059    8    2    8    2
 1.362365081858385e-14    8    2    8    3
 0.01853260557412482    8    2    8    4
 8.683158359001908e-15    8    2    8    7
 -7.898195986122403e-15    8    2   10    5
 -6.218116299638865e-15    8    2   10    6
 0.01260878052881991    8    2   10    8
 9.125668699438289e-15    8    3    5    1
 -0.008986251364022193    8    3    5    2
 -0.03372832707508851    8    3    5    4
 7.182920707879403e-15    8    3    6    1
 -0.007074479655901627    8    3    6    2
 -0.02655282542792227    8    3    6    4
 0.01344110584320161    8    3    8    1
 1.362512804404387e-14    8    3    8    2
 0.04424917100755782    8    3    8    3
 0.02499685655616158    8    3    8    7
 -0.02672692674992625    8    3   10    5
 -0.02104093151835624    8    3   10    6
 -0.0122641264984646    8    4    5    1
 -1.248266355731442e-14    8    4    5    2
 -0.05822356255321835    8    4    5    3
 -0.009655006286398558    8    4    6    1
 -9.822587079648393e-15    8    4    6    2
 -0.04583684476332012    8    4    6    3
 -0.02940976602611497    8    4    7    5
 -0.02315301264213149    8    4    7    6
 -1.882029959394266e-14    8    4    8    1
 0.01853260557412482    8    4    8    2
 0.08236493094061516    8    4    8    4
 0.03605239402990015    8    4   10    8
 4.395408191061601e-13    8    5    1    1
 -0.2163528735372503    8    5    2    1
 -4.395392876705914e-13    8    5    2    2
 -7.062875810462735e-15    8    5    3    1
 0.006946098550025215    8    5    3    2
 0.002157769159616502    8    5    4    1
 2.164392796932813e-15    8    5    4    2
 -0.07597403352874091    8    5    4    3
 -1.100694226612685e-15    8    5    5    4
 2.958787728712942e-15    8    5    7    1
 -0.002971695545510263    8    5    7    2
 -0.1236913761625339    8    5    7    4
 0.1231192004944175    8    5    8    5
 0.08198425115188956    8    5    8    6
 -0.08198425115188954    8    5    9    5
 0.08515932303696745    8    5    9    6
 0.007787608079031017    8    5   10    1
 7.87596984158645e-15    8    5   10    2
 -0.08026073233950126    8    5   10    3
 0.07239138085897398    8    5   10    7
 3.46033236922139e-13    8    6    1    1
 -0.1703250822098141    8    6    2    1
 -3.460413379452465e-13    8    6    2    2
 -5.566470136393609e-15    8    6    3    1
 0.005468357259266142    8    6    3    2
 0.001698716561942034    8    6    4    1
 1.705883698188693e-15    8    6    4    2
 -0.05981100826176913    8    6    4    3
 2.32932705242217e-15    8    6    7    1
 -0.00233948493410895    8    6    7    2
 -0.09737676911372899    8    6    7    4
 0.08198425115188956    8    6    8    5
 0.08352252644227069    8    6    8    6
 -0.04556264898482073    8    6    9    5
 0.08198425115188959    8    6    9    6
 0.006130840624358013    8    6   10    1
 6.195239633799421e-15    8    6   10    2
 -0.06318573731165053    8    6   10    3
 0.05699054370989806    8    6   10    7
 1.428737377030395e-15    8    7    2    1
 5.62748361365023e-15    8    7    5    1
 -0.005521076388096465    8    7    5    2
 -0.03074677142020597    8    7    5    4
 4.431835622228583e-15    8    7    6    1
 -0.004346500114902731    8    7    6    2
 -0.02420557806426028    8    7    6    4
 1.018703734485424e-15    8    7    7    4
 0.008608741470998733    8    7    8    1
 8.684229008647237e-15    8    7    8    2
 0.02499685655616159    8    7    8    3
 0.03816957457881432    8    7    8    7
 -0.003469598509868852    8    7   10    5
 -0.002731461994317877    8    7   10    6
 0.7276833321892711    8    8    1    1
 -1.034288214969703e-15    8    8    2    1
 0.7277125780396619    8    8    2    2
 -0.005948816217118276    8    8    3    1
 -5.952703607814414e-15    8    8    3    2
 0.5960361351608511    8    8    3    3
 8.031010752251877e-15    8    8    4    1
 -0.007743252746406346    8    8    4    2
 0.5358793067768522    8    8    4    4
 0.5695719077520132    8    8    5    5
 0.02223836721717933    8    8    6    5
 0.5588312427367388    8    8    6    6
 -0.005357766510219404    8    8    7    1
 -5.499073418846478e-15    8    8    7    2
 -0.02922830918125495    8    8    7    3
 0.5405366748405797    8    8    7    7
 0.6047495644207167    8    8    8    8
 0.5546128382886495    8    8    9    9
 -0.0003361779982835893    8    8   10    2
 0.02848138143235664    8    8   10    4
 0.621350992954119    8    8   10   10
 -1.457045492966229e-14    9    1    5    1
 0.006996070512240497    9    1    5    2
 -1.183558459572076e-14    9    1    5    3
 0.008331631315200972    9    1    5    4
 1.85131789997954e-14    9    1    6    1
 -0.008886653328767572    9    1    6    2
 1.503636624933247e-14    9    1    6    3
 -0.01058312934836092    9    1    6    4
 -3.920149795055838e-15    9    1    7    5
 4.984456857676234e-15    9    1    7    6
 0.01381736176858661    9    1    9    1
 0.01344110584320161    9    1    9    3
 -1.880646246371631e-14    9    1    9    4
 0.008608741470998733    9    1    9    7
 0.006116768571944238    9    1   10    5
 -0.007769733266133285    9    1   10    6
 -1.281613704051665e-14    9    1   10    9
 0.007353393833939409    9    2    5    1
 1.458281737552747e-14    9    2    5    2
 0.01165875481342321    9    2    5    3
 8.475425222753685e-15    9    2    5    4
 -0.009340537903067693    9    2    6    1
 -1.851751580848535e-14    9    2    6    2
 -0.01480935792323968    9    2    6    3