[Molden Format]
made by pyscf v[2.11.0]
[Atoms] (AU)
Dy   1   66     0.00000000000000     0.00000000000000     0.00000000000000
Cl   2   17    -5.14005505881697     0.00000000000000     0.00000000000000
Cl   3   17     5.14005505881697     0.00000000000000     0.00000000000000
Cl   4   17     0.00000000000000    -5.14005505881697     0.00000000000000
Cl   5   17     0.00000000000000     5.14005505881697     0.00000000000000
Cl   6   17     0.00000000000000     0.00000000000000    -5.14005505881697
Cl   7   17     0.00000000000000     0.00000000000000     5.14005505881697
[GTO]
1 0
 s   25 1.00
              48703424  0.00051062000604741
            9835905.78  0.00091639001085305
            2507419.33  0.0023698200280664
            720107.291  0.0050415100597079
            227915.188   0.010902460129121
            77972.0454   0.022615480267841
            28493.1637   0.046896220555404
            10994.2054    0.09576921113422
            4432.76659    0.18702809221502
             1855.9353    0.31055332367797
            804.115628    0.34439942407881
            356.717248    0.16185973191695
            163.510611   0.010082700119412
            77.7468785   0.003244120038421
            37.8689264  -0.0024863200294461
            18.8149364  0.0016313800193209
            9.17736071  -0.0010531100124723
            4.38814536  0.00062977000745853
            2.00478195  -0.000234310002775
             0.7515629  5.6610000670447e-05
            0.30062516  -0.00010589000125408
            0.12025006  4.4830000530934e-05
            0.04810002  -9.0800001075368e-06
            0.01924001  1.6280000192808e-05
              0.007696  -3.3600000397934e-06
 s   25 1.00
              48703424  -0.00018679000099407
            9835905.78  -0.00033574000178676
            2507419.33  -0.00087008000463044
            720107.291  -0.0018589600098931
            227915.188  -0.0040495600215512
            77972.0454  -0.0085044200452593
            28493.1637  -0.018022200095912
            10994.2054  -0.038199220203291
            4432.76659  -0.080058790426061
             1855.9353   -0.15174939080759
            804.115628   -0.21181579112725
            356.717248  -0.064521000343372
            163.510611    0.43261834230233
            77.7468785    0.57466530305829
            37.8689264    0.15019709079933
            18.8149364  0.0058764700312737
            9.17736071  -0.0011128900059226
            4.38814536  0.00063454000337693
            2.00478195  -0.00043087000229303
             0.7515629  0.0002159400011492
            0.30062516  -0.00011463000061004
            0.12025006  7.1250000379182e-05
            0.04810002  -4.2070000223891e-05
            0.01924001  1.7830000094889e-05
              0.007696  -5.3700000285784e-06
 s   25 1.00
              48703424  8.7149999934721e-05
            9835905.78  0.00015668999988263
            2507419.33  0.00040619999969574
            720107.291  0.00086840999934952
            227915.188  0.0018940099985813
            77972.0454  0.0039848999970151
            28493.1637  0.0084748999936519
            10994.2054   0.018066379986468
            4432.76659   0.038316459971299
             1855.9353   0.074261009944375
            804.115628     0.1082698999189
            356.717248   0.030054139977488
            163.510611   -0.33597758974834
            77.7468785   -0.63590420952368
            37.8689264   0.081147649939217
            18.8149364    0.91500814931462
            9.17736071    0.32079410975971
            4.38814536  0.0048657699963553
            2.00478195   0.003763439997181
             0.7515629  -0.001424499998933
            0.30062516  0.00057647999956819
            0.12025006  -0.000384489999712
            0.04810002  0.0002226899998332
            0.01924001  -9.1909999931155e-05
              0.007696  2.8159999978907e-05
 s   25 1.00
              48703424  -4.1970000262016e-05
            9835905.78  -7.5460000471092e-05
            2507419.33  -0.00019563000122131
            720107.291  -0.00041835000261173
            227915.188  -0.00091246000569643
            77972.0454  -0.0019214200119953
            28493.1637  -0.0040866700255128
            10994.2054  -0.0087342900545276
            4432.76659  -0.018539190115739
             1855.9353  -0.036229260226177
            804.115628  -0.053067120331295
            356.717248  -0.015058050094006
            163.510611     0.1842716111504
            77.7468785    0.37361716233247
            37.8689264   -0.06359666039703
            18.8149364    -1.0422746165069
            9.17736071   -0.25331861158145
            4.38814536     1.0776000067274
            2.00478195    0.41151803256908
             0.7515629  -0.0026565800165849
            0.30062516  0.0074291000463794
            0.12025006  -0.0038461500240113
            0.04810002  0.0020371700127179
            0.01924001  -0.0010339900064551
              0.007696  0.00029030000181232
 s   25 1.00
              48703424  1.622999998392e-05
            9835905.78   2.91699999711e-05
            2507419.33  7.5639999925059e-05
            720107.291  0.00016171999983977
            227915.188  0.00035288999965037
            77972.0454  0.00074262999926423
            28493.1637   0.001581599998433
            10994.2054  0.0033746999966565
            4432.76659  0.0071866499928798
             1855.9353   0.013997169986132
            804.115628    0.02070125997949
            356.717248  0.0055215199945295
            163.510611   -0.07218751992848
            77.7468785   -0.15343223984799
            37.8689264   0.033394369966914
            18.8149364    0.47561417952878
            9.17736071    0.13200861986921
            4.38814536   -0.81808348918948
            2.00478195   -0.41033223959346
             0.7515629    0.91652096909195
            0.30062516    0.48350786952096
            0.12025006  -0.019420429980759
            0.04810002   0.041173639959207
            0.01924001  -0.0022705699977504
              0.007696  0.0023104999977109
 s   25 1.00
              48703424  -4.7700000122115e-06
            9835905.78  -8.5800000219654e-06
            2507419.33  -2.2240000056936e-05
            720107.291  -4.7540000121706e-05
            227915.188  -0.00010376000026563
            77972.0454  -0.00021829000055884
            28493.1637  -0.00046509000119066
            10994.2054  -0.00099179000253905
            4432.76659  -0.0021141900054125
             1855.9353  -0.0041123000105278
            804.115628  -0.0060990000156139
            356.717248  -0.0015936700040799
            163.510611   0.021205030054286
            77.7468785   0.045578520116684
            37.8689264  -0.010490850026857
            18.8149364   -0.14203101036361
            9.17736071  -0.042038270107621
            4.38814536    0.26539425067943
            2.00478195    0.13626068034884
             0.7515629   -0.38106898097556
            0.30062516   -0.43085190110301
            0.12025006    0.22604469057869
            0.04810002    0.80254130205456
            0.01924001    0.23566263060331
              0.007696  -0.0060343500154484
 s   25 1.00
              48703424  1.3149999980138e-05
            9835905.78  2.3629999964308e-05
            2507419.33  6.1309999907394e-05
            720107.291  0.00013090999980227
            227915.188  0.00028638999956742
            77972.0454  0.00060005999909364
            28493.1637  0.0012876099980551
            10994.2054  0.0027160499958975
            4432.76659  0.0058884799911057
             1855.9353   0.011177319983117
            804.115628   0.017347789973797
            356.717248  0.0029811299954971
            163.510611  -0.055247599916551
            77.7468785   -0.13781893979183
            37.8689264    0.05257393992059
            18.8149364    0.38038990942544
            9.17736071    0.19176140971035
            4.38814536    -1.1836041282122
            2.00478195    0.38466385941898
             0.7515629     1.1855087382093
            0.30062516   -0.44340252933026
            0.12025006      -1.07254727838
            0.04810002   -0.13239772980002
            0.01924001     1.0807407483676
              0.007696  -0.069092869895639
 p   22 1.00
            6873747.25  2.6660000038507e-05
            1057919.64  8.9470000129227e-05
            224119.965  0.00029634000042802
            57590.4869  0.00096719000139697
            17230.9546  0.0032038300046275
             5880.0643   0.010592060015299
            2242.72524   0.033822420048852
            933.490886   0.097757360141197
            414.230948    0.23086474033345
            191.936524    0.38098619055028
            91.6221274    0.33293017048087
            43.8611428    0.10085375014567
            21.5452745  0.0027370700039533
            10.5469112  0.0012656800018281
             5.0111035  -0.00075274000108723
            2.30220189  0.00031427000045392
            1.00615809  -0.00015858000022905
            0.40246323  7.6340000110263e-05
            0.16098529  -4.2210000060966e-05
            0.06439411  2.2620000032671e-05
            0.02575764  -1.0840000015657e-05
            0.01030306  3.4400000049686e-06
 p   22 1.00
            6873747.25  -1.3219999916687e-05
            1057919.64  -4.4409999720126e-05
            224119.965  -0.00014735999907133
            57590.4869  -0.00048247999695939
            17230.9546  -0.0016057999898802
             5880.0643  -0.0053540999662582
            2242.72524  -0.017349059890665
            933.490886   -0.05162289967467
            414.230948   -0.12769732919524
            191.936524   -0.22389325858901
            91.6221274   -0.15241263903949
            43.8611428    0.29251262815657
            21.5452745    0.60300142619985
            10.5469112    0.24249462847179
             5.0111035   0.014059509911396
            2.30220189  0.0018736899881919
            1.00615809  -0.00062765999604445
            0.40246323  0.00032027999798158
            0.16098529  -0.00016847999893823
            0.06439411  9.3049999413594e-05
            0.02575764  -4.4389999720252e-05
            0.01030306  1.4099999911141e-05
 p   22 1.00
            6873747.25  6.2600000165037e-06
            1057919.64  2.1050000055496e-05
            224119.965  6.9860000184178e-05
            57590.4869  0.0002289900006037
            17230.9546  0.00076224000200955
             5880.0643  0.0025498600067224
            2242.72524  0.0082737100218126
            933.490886   0.024841490065492
            414.230948   0.061929170163269
            191.936524    0.11079347029209
            91.6221274     0.0672132001772
            43.8611428    -0.2113486905572
            21.5452745    -0.4803163012663
            10.5469112   0.053687590141541
             5.0111035    0.71825381189359
            2.30220189    0.37777337099595
            1.00615809   0.020670590054496
            0.40246323  0.0047816300126062
            0.16098529  -0.0021721200057265
            0.06439411  0.0012105600031915
            0.02575764  -0.00059588000157097
            0.01030306  0.0001899200005007
 p   22 1.00
            6873747.25  -2.170000003249e-06
            1057919.64  -7.290000010915e-06
            224119.965  -2.4200000036234e-05
            57590.4869  -7.9350000118807e-05
            17230.9546  -0.00026418000039554
             5880.0643  -0.00088417000132383
            2242.72524  -0.0028703300042976
            933.490886  -0.0086313800129234
            414.230948  -0.021557950032278
            191.936524  -0.038705300057952
            91.6221274  -0.022924330034324
            43.8611428   0.079424820118919
            21.5452745    0.18403668027555
            10.5469112  -0.048008930071881
             5.0111035   -0.37734966056499
            2.30220189   -0.19918231029823
            1.00615809    0.49696473074408
            0.40246323    0.61274689091744
            0.16098529    0.10916501016345
            0.06439411  0.0077024200115325
            0.02575764  -0.0020550500030769
            0.01030306  0.00083932000125667
 p   22 1.00
            6873747.25  1.7400000036107e-06
            1057919.64  5.8600000121601e-06
            224119.965  1.9480000040423e-05
            57590.4869  6.3740000132267e-05
            17230.9546  0.00021288000044175
             5880.0643   0.000709360001472
            2242.72524  0.0023166700048073
            933.490886  0.0069208200143614
            414.230948   0.017445560036201
            191.936524   0.030965560064257
            91.6221274   0.019039110039508
            43.8611428  -0.067065910139169
            21.5452745   -0.15121810031379
            10.5469112   0.045490550094398
             5.0111035    0.37839782078522
            2.30220189   0.040452550083943
            1.00615809   -0.68804394142777
            0.40246323  -0.075191760156031
            0.16098529    0.49911417103572
            0.06439411    0.53286480110575
            0.02575764   0.061557740127739
            0.01030306  0.00036550000075845
 p   22 1.00
            6873747.25  -3.0999999901871e-06
            1057919.64  -1.0409999967048e-05
            224119.965  -3.4649999890317e-05
            57590.4869  -0.00011302999964221
            17230.9546  -0.00037960999879837
             5880.0643  -0.0012551499960269
            2242.72524  -0.0041415399868902
            933.490886  -0.012227699961294
            414.230948  -0.031306059900902
            191.936524  -0.054430139827705
            91.6221274  -0.035636709887194
            43.8611428    0.12652893959948
            21.5452745    0.27224935913821
            10.5469112  -0.094030399702352
             5.0111035   -0.83289851736351
            2.30220189    0.37973993879796
            1.00615809     1.2300407461064
            0.40246323    -1.2008890861987
            0.16098529   -0.33516686893905
            0.06439411    0.83057531737086
            0.02575764   0.078220699752397
            0.01030306  0.0087258999723787
 d   15 1.00
            4432.76659  0.0004052899988262
             1855.9353  0.0013211499961737
            804.115628  0.0070005199797252
            356.717248   0.029790339913722
            163.510611    0.10285193970212
            77.7468785     0.2533325492663
            37.8689264    0.39807989884709
            18.8149364    0.32606804905565
            9.17736071   0.098390789715042
            4.38814536  0.0052226599848742
            2.00478195  0.00082067999762316
             0.7515629  -0.00018752999945688
            0.28409153  0.00010875999968501
            0.08929497  -3.8079999889713e-05
            0.03571798  1.675999995146e-05
 d   15 1.00
            4432.76659  -0.00019465999881141
             1855.9353  -0.00062434999618773
            804.115628  -0.0033846399793335
            356.717248  -0.014344799912411
            163.510611  -0.050847289689527
            77.7468785    -0.1255652292333
            37.8689264   -0.19208142882715
            18.8149364  -0.071161549565489
            9.17736071     0.3122344980935
            4.38814536    0.51695901684346
            2.00478195    0.29235922821486
             0.7515629   0.040170879754717
            0.28409153  -0.0025783699842565
            0.08929497  0.0013635599916741
            0.03571798  -0.00051166999687575
 d   15 1.00
            4432.76659  5.9099999854626e-05
             1855.9353  0.00017361999957293
            804.115628  0.0010254099974777
            356.717248  0.0041134099898819
            163.510611   0.015263299962455
            77.7468785     0.0362224199109
            37.8689264   0.058675129855671
            18.8149364   0.011775249971035
            9.17736071   -0.10295526974675
            4.38814536   -0.20842941948731
            2.00478195   0.025690299936807
             0.7515629    0.44985418889345
            0.28409153    0.48110488881658
            0.08929497    0.25089250938286
            0.03571798      0.032116379921
 d   15 1.00
            4432.76659  -8.2399999902099e-05
             1855.9353  -0.00020320999975856
            804.115628  -0.0014204599983123
            356.717248  -0.0051237099939124
            163.510611  -0.020643039975474
            77.7468785  -0.045407409946051
            37.8689264  -0.083023069901359
            18.8149364  -0.0074137499911916
            9.17736071    0.11752780986036
            4.38814536    0.36949960956099
            2.00478195   -0.21701067974217
             0.7515629   -0.81737172902887
            0.28409153    0.38179703954638
            0.08929497    0.57870431931243
            0.03571798    0.05747732993171
 f   11 1.00
            191.936524  0.0028226399910107
            91.6221274   0.010543339966423
            43.8611428   0.042277399865359
            21.5452745    0.11522457963304
            10.5469112    0.24128769923157
             5.0111035    0.33641747892861
            2.30220189    0.33089587894619
            1.00615809    0.23406371925458
            0.40632415    0.10588539966279
            0.16252966   0.016411079947736
            0.06501186  -0.000204729999348
 f   11 1.00
            191.936524  -0.0030447999821983
            91.6221274  -0.011574449932329
            43.8611428  -0.045865649731843
            21.5452745   -0.12726732925592
            10.5469112   -0.25118356853143
             5.0111035   -0.26298913846241
            2.30220189   0.021454899874562
            1.00615809    0.44728065738494
            0.40632415    0.42666991750544
            0.16252966    0.13926543918577
            0.06501186     0.0190880798884

2 0
 s   17 1.00
             399432.47  0.00030483999979349
             56908.833  0.00097689999933823
             16874.769  0.0021382899985515
             6010.0278  0.0059694099959562
              2303.283   0.016181889989038
             915.65994    0.04523016996936
             371.72009    0.11792450992012
             152.89109    0.26154411982282
             63.436303    0.40192153972773
             26.481723    0.26874481981795
             11.104112   0.032816939977769
             4.6716289  0.0035591799975889
              1.970452  -0.0017077799988431
             0.8327946  0.0012973499991211
             0.3525409  -0.00065904999955354
             0.1494341  0.0002457899998335
             0.0597736  -1.459999999011e-06
 s   17 1.00
             399432.47  -8.5440000252327e-05
             56908.833  -0.00027415000080964
             16874.769  -0.00060181000177731
             6010.0278  -0.001684910004976
              2303.283  -0.0046144000136276
             915.65994  -0.013129400038775
             371.72009  -0.035909770106051
             152.89109   -0.08838331026102
             63.436303   -0.17459524051563
             26.481723   -0.17768036052474
             11.104112    0.15212083044925
             4.6716289    0.62550754184729
              1.970452    0.36355752107368
             0.8327946  0.0096020400283574
             0.3525409   0.026352210077825
             0.1494341  0.0047660600140755
             0.0597736  0.00086954000256799
 s   17 1.00
             399432.47  2.8049999954254e-05
             56908.833  8.9929999853334e-05
             16874.769   0.000198049999677
             6010.0278  0.00055164999910032
              2303.283  0.0015233499975156
             915.65994  0.0043047099929795
             371.72009   0.011934569980536
             152.89109   0.029371349952099
             63.436303   0.060214619901797
             26.481723   0.062571659897953
             11.104112  -0.056611739907673
             4.6716289   -0.32750974946587
              1.970452   -0.34199198944225
             0.8327946    0.31850882948055
             0.3525409    0.66176116892074
             0.1494341    0.27830910954611
             0.0597736   0.016827229972557
 s   17 1.00
             399432.47  -2.5939999936789e-05
             56908.833  -8.3269999797086e-05
             16874.769  -0.00018238999955555
             6010.0278  -0.00051267999875069
              2303.283  -0.0013955699965992
             915.65994  -0.0039968199902605
             371.72009  -0.010840949973583
             152.89109  -0.026894559934463
             63.436303  -0.053084409870643
             26.481723   -0.05725504986048
             11.104112   0.064326739843247
             4.6716289    0.30253799926277
              1.970452     0.5130468087498
             0.8327946    -1.1309193472442
             0.3525409   -0.72817380822557
             0.1494341     1.1741330371388
             0.0597736    0.32946195919716
 p   12 1.00
             1288.9716  0.00093569998795284
              312.2443   0.006125189921138
             111.34634   0.025628039670038
             43.736087   0.092817558804972
             17.856524    0.24346159686543
             7.4327659    0.41401587466954
             3.1282538    0.34722987552941
             1.3257214   0.076468709015463
             0.5644191  0.0021224899726729
             0.2410741  -0.0007908799898174
             0.1032089  -0.00020295999738689
             0.0412836  -9.273999880597e-05
 p   12 1.00
             1288.9716  -0.00024782000099467
              312.2443  -0.0016265400065284
             111.34634  -0.0068710200275781
             43.736087  -0.025357550101777
             17.856524  -0.068740670275903
             7.4327659   -0.12202766048978
             3.1282538   -0.10596481042531
             1.3257214    0.13708383055021
             0.5644191    0.42571611170869
             0.2410741    0.41428846166282
             0.1032089    0.18204070073065
             0.0412836   0.030111650120859
 p   12 1.00
             1288.9716  0.00024047000076546
              312.2443  0.0015279500048637
             111.34634  0.0067375300214468
             43.736087   0.023887840076039
             17.856524   0.068773230218917
             7.4327659    0.11190534035621
             3.1282538    0.12059088038386
             1.3257214   -0.22523997071698
             0.5644191   -0.64105309204059
             0.2410741   0.051740530164699
             0.1032089    0.69480634221169
             0.0412836    0.30411632096806

3 0
 s   17 1.00
             399432.47  0.00030483999979349
             56908.833  0.00097689999933823
             16874.769  0.0021382899985515
             6010.0278  0.0059694099959562
              2303.283   0.016181889989038
             915.65994    0.04523016996936
             371.72009    0.11792450992012
             152.89109    0.26154411982282
             63.436303    0.40192153972773
             26.481723    0.26874481981795
             11.104112   0.032816939977769
             4.6716289  0.0035591799975889
              1.970452  -0.0017077799988431
             0.8327946  0.0012973499991211
             0.3525409  -0.00065904999955354
             0.1494341  0.0002457899998335
             0.0597736  -1.459999999011e-06
 s   17 1.00
             399432.47  -8.5440000252327e-05
             56908.833  -0.00027415000080964
             16874.769  -0.00060181000177731
             6010.0278  -0.001684910004976
              2303.283  -0.0046144000136276
             915.65994  -0.013129400038775
             371.72009  -0.035909770106051
             152.89109   -0.08838331026102
             63.436303   -0.17459524051563
             26.481723   -0.17768036052474
             11.104112    0.15212083044925
             4.6716289    0.62550754184729
              1.970452    0.36355752107368
             0.8327946  0.0096020400283574
             0.3525409   0.026352210077825
             0.1494341  0.0047660600140755
             0.0597736  0.00086954000256799
 s   17 1.00
             399432.47  2.8049999954254e-05
             56908.833  8.9929999853334e-05
             16874.769   0.000198049999677
             6010.0278  0.00055164999910032
              2303.283  0.0015233499975156
             915.65994  0.0043047099929795
             371.72009   0.011934569980536
             152.89109   0.029371349952099
             63.436303   0.060214619901797
             26.481723   0.062571659897953
             11.104112  -0.056611739907673
             4.6716289   -0.32750974946587
              1.970452   -0.34199198944225
             0.8327946    0.31850882948055
             0.3525409    0.66176116892074
             0.1494341    0.27830910954611
             0.0597736   0.016827229972557
 s   17 1.00
             399432.47  -2.5939999936789e-05
             56908.833  -8.3269999797086e-05
             16874.769  -0.00018238999955555
             6010.0278  -0.00051267999875069
              2303.283  -0.0013955699965992
             915.65994  -0.0039968199902605
             371.72009  -0.010840949973583
             152.89109  -0.026894559934463
             63.436303  -0.053084409870643
             26.481723   -0.05725504986048
             11.104112   0.064326739843247
             4.6716289    0.30253799926277
              1.970452     0.5130468087498
             0.8327946    -1.1309193472442
             0.3525409   -0.72817380822557
             0.1494341     1.1741330371388
             0.0597736    0.32946195919716
 p   12 1.00
             1288.9716  0.00093569998795284
              312.2443   0.006125189921138
             111.34634   0.025628039670038
             43.736087   0.092817558804972
             17.856524    0.24346159686543
             7.4327659    0.41401587466954
             3.1282538    0.34722987552941
             1.3257214   0.076468709015463
             0.5644191  0.0021224899726729
             0.2410741  -0.0007908799898174
             0.1032089  -0.00020295999738689
             0.0412836  -9.273999880597e-05
 p   12 1.00
             1288.9716  -0.00024782000099467
              312.2443  -0.0016265400065284
             111.34634  -0.0068710200275781
             43.736087  -0.025357550101777
             17.856524  -0.068740670275903
             7.4327659   -0.12202766048978
             3.1282538   -0.10596481042531
             1.3257214    0.13708383055021
             0.5644191    0.42571611170869
             0.2410741    0.41428846166282
             0.1032089    0.18204070073065
             0.0412836   0.030111650120859
 p   12 1.00
             1288.9716  0.00024047000076546
              312.2443  0.0015279500048637
             111.34634  0.0067375300214468
             43.736087   0.023887840076039
             17.856524   0.068773230218917
             7.4327659    0.11190534035621
             3.1282538    0.12059088038386
             1.3257214   -0.22523997071698
             0.5644191   -0.64105309204059
             0.2410741   0.051740530164699
             0.1032089    0.69480634221169
             0.0412836    0.30411632096806

4 0
 s   17 1.00
             399432.47  0.00030483999979349
             56908.833  0.00097689999933823
             16874.769  0.0021382899985515
             6010.0278  0.0059694099959562
              2303.283   0.016181889989038
             915.65994    0.04523016996936
             371.72009    0.11792450992012
             152.89109    0.26154411982282
             63.436303    0.40192153972773
             26.481723    0.26874481981795
             11.104112   0.032816939977769
             4.6716289  0.0035591799975889
              1.970452  -0.0017077799988431
             0.8327946  0.0012973499991211
             0.3525409  -0.00065904999955354
             0.1494341  0.0002457899998335
             0.0597736  -1.459999999011e-06
 s   17 1.00
             399432.47  -8.5440000252327e-05
             56908.833  -0.00027415000080964
             16874.769  -0.00060181000177731
             6010.0278  -0.001684910004976
              2303.283  -0.0046144000136276
             915.65994  -0.013129400038775
             371.72009  -0.035909770106051
             152.89109   -0.08838331026102
             63.436303   -0.17459524051563
             26.481723   -0.17768036052474
             11.104112    0.15212083044925
             4.6716289    0.62550754184729
              1.970452    0.36355752107368
             0.8327946  0.0096020400283574
             0.3525409   0.026352210077825
             0.1494341  0.0047660600140755
             0.0597736  0.00086954000256799
 s   17 1.00
             399432.47  2.8049999954254e-05
             56908.833  8.9929999853334e-05
             16874.769   0.000198049999677
             6010.0278  0.00055164999910032
              2303.283  0.0015233499975156
             915.65994  0.0043047099929795
             371.72009   0.011934569980536
             152.89109   0.029371349952099
             63.436303   0.060214619901797
             26.481723   0.062571659897953
             11.104112  -0.056611739907673
             4.6716289   -0.32750974946587
              1.970452   -0.34199198944225
             0.8327946    0.31850882948055
             0.3525409    0.66176116892074
             0.1494341    0.27830910954611
             0.0597736   0.016827229972557
 s   17 1.00
             399432.47  -2.5939999936789e-05
             56908.833  -8.3269999797086e-05
             16874.769  -0.00018238999955555
             6010.0278  -0.00051267999875069
              2303.283  -0.0013955699965992
             915.65994  -0.0039968199902605
             371.72009  -0.010840949973583
             152.89109  -0.026894559934463
             63.436303  -0.053084409870643
             26.481723   -0.05725504986048
             11.104112   0.064326739843247
             4.6716289    0.30253799926277
              1.970452     0.5130468087498
             0.8327946    -1.1309193472442
             0.3525409   -0.72817380822557
             0.1494341     1.1741330371388
             0.0597736    0.32946195919716
 p   12 1.00