 &FCI NORB=  14,NELEC=   9,MS2=5,
  ORBSYM=1,1,1,1,1,1,1,1,1,1,1,1,1,1,
  ISYM=1,
 &END
  1.2233935229885124  0.0000000000000000   1   1   1   1
  0.0001745762670005  0.0000000000000000   1   1   1   3
  0.0003168699343510  0.0000000000000000   1   1   1   5
 -0.0001472145345994  0.0000000000000000   1   1   1   7
  0.0001183488886771  0.0000000000000000   1   1   1   9
  0.0001159250098569  0.0000000000000000   1   1   1  11
 -0.0004362535194721  0.0000000000000000   1   1   1  13
  1.2233935229885124  0.0000000000000000   1   1   2   2
  0.0001745762670005  0.0000000000000000   1   1   2   4
  0.0003168699343510  0.0000000000000000   1   1   2   6
 -0.0001472145345994  0.0000000000000000   1   1   2   8
  0.0001183488886771  0.0000000000000000   1   1   2  10
  0.0001159250098569  0.0000000000000000   1   1   2  12
 -0.0004362535194721  0.0000000000000000   1   1   2  14
  0.0001745762670005  0.0000000000000000   1   1   3   1
  1.1196451996753753  0.0000000000000000   1   1   3   3
  0.0017305081519262  0.0000000000000000   1   1   3   5
  0.0002144781422239  0.0000000000000000   1   1   3   7
  0.0003165123727221  0.0000000000000000   1   1   3   9
  0.0019216614624862  0.0000000000000000   1   1   3  11
  0.0017259981944684  0.0000000000000000   1   1   3  13
  0.0001745762670005  0.0000000000000000   1   1   4   2
  1.1196451996753753  0.0000000000000000   1   1   4   4
  0.0017305081519262  0.0000000000000000   1   1   4   6
  0.0002144781422239  0.0000000000000000   1   1   4   8
  0.0003165123727221  0.0000000000000000   1   1   4  10
  0.0019216614624862  0.0000000000000000   1   1   4  12
  0.0017259981944684  0.0000000000000000   1   1   4  14
  0.0003168699343510  0.0000000000000000   1   1   5   1
  0.0017305081519262  0.0000000000000000   1   1   5   3
  1.1361605868734743  0.0000000000000000   1   1   5   5
  0.0002840923751747  0.0000000000000000   1   1   5   7
 -0.0071870279654409  0.0000000000000000   1   1   5   9
  0.0254972457033674  0.0000000000000000   1   1   5  11
  0.0248691170360524  0.0000000000000000   1   1   5  13
  0.0003168699343510  0.0000000000000000   1   1   6   2
  0.0017305081519262  0.0000000000000000   1   1   6   4
  1.1361605868734743  0.0000000000000000   1   1   6   6
  0.0002840923751747  0.0000000000000000   1   1   6   8
 -0.0071870279654409  0.0000000000000000   1   1   6  10
  0.0254972457033674  0.0000000000000000   1   1   6  12
  0.0248691170360524  0.0000000000000000   1   1   6  14
 -0.0001472145345994  0.0000000000000000   1   1   7   1
  0.0002144781422239  0.0000000000000000   1   1   7   3
  0.0002840923751747  0.0000000000000000   1   1   7   5
  1.1013470914882986  0.0000000000000000   1   1   7   7
  0.0000952607109806  0.0000000000000000   1   1   7   9
  0.0045501105946907  0.0000000000000000   1   1   7  11
 -0.0062595527698331  0.0000000000000000   1   1   7  13
 -0.0001472145345994  0.0000000000000000   1   1   8   2
  0.0002144781422239  0.0000000000000000   1   1   8   4
  0.0002840923751747  0.0000000000000000   1   1   8   6
  1.1013470914882986  0.0000000000000000   1   1   8   8
  0.0000952607109806  0.0000000000000000   1   1   8  10
  0.0045501105946907  0.0000000000000000   1   1   8  12
 -0.0062595527698331  0.0000000000000000   1   1   8  14
  0.0001183488886771  0.0000000000000000   1   1   9   1
  0.0003165123727221  0.0000000000000000   1   1   9   3
 -0.0071870279654409  0.0000000000000000   1   1   9   5
  0.0000952607109806  0.0000000000000000   1   1   9   7
  1.1012973027736421  0.0000000000000000   1   1   9   9
  0.0027514597210614  0.0000000000000000   1   1   9  11
  0.0011707710965160  0.0000000000000000   1   1   9  13
  0.0001183488886771  0.0000000000000000   1   1  10   2
  0.0003165123727221  0.0000000000000000   1   1  10   4
 -0.0071870279654409  0.0000000000000000   1   1  10   6
  0.0000952607109806  0.0000000000000000   1   1  10   8
  1.1012973027736421  0.0000000000000000   1   1  10  10
  0.0027514597210614  0.0000000000000000   1   1  10  12
  0.0011707710965160  0.0000000000000000   1   1  10  14
  0.0001159250098569  0.0000000000000000   1   1  11   1
  0.0019216614624862  0.0000000000000000   1   1  11   3
  0.0254972457033674  0.0000000000000000   1   1  11   5
  0.0045501105946907  0.0000000000000000   1   1  11   7
  0.0027514597210614  0.0000000000000000   1   1  11   9
  1.1374237436233037  0.0000000000000000   1   1  11  11
  0.0259743200672485  0.0000000000000000   1   1  11  13
  0.0001159250098569  0.0000000000000000   1   1  12   2
  0.0019216614624862  0.0000000000000000   1   1  12   4
  0.0254972457033674  0.0000000000000000   1   1  12   6
  0.0045501105946907  0.0000000000000000   1   1  12   8
  0.0027514597210614  0.0000000000000000   1   1  12  10
  1.1374237436233037  0.0000000000000000   1   1  12  12
  0.0259743200672485  0.0000000000000000   1   1  12  14
 -0.0004362535194721  0.0000000000000000   1   1  13   1
  0.0017259981944684  0.0000000000000000   1   1  13   3
  0.0248691170360524  0.0000000000000000   1   1  13   5
 -0.0062595527698331  0.0000000000000000   1   1  13   7
  0.0011707710965160  0.0000000000000000   1   1  13   9
  0.0259743200672485  0.0000000000000000   1   1  13  11
  1.1368118144793049  0.0000000000000000   1   1  13  13
 -0.0004362535194721  0.0000000000000000   1   1  14   2
  0.0017259981944684  0.0000000000000000   1   1  14   4
  0.0248691170360524  0.0000000000000000   1   1  14   6
 -0.0062595527698331  0.0000000000000000   1   1  14   8
  0.0011707710965160  0.0000000000000000   1   1  14  10
  0.0259743200672485  0.0000000000000000   1   1  14  12
  1.1368118144793049  0.0000000000000000   1   1  14  14
  0.0001745762670002  0.0000000000000000   1   3   1   1
  0.0256113944748116  0.0000000000000000   1   3   1   3
 -0.0002962724566443  0.0000000000000000   1   3   1   5
  0.0001343092054146  0.0000000000000000   1   3   1   7
  0.0002069042292004  0.0000000000000000   1   3   1   9
 -0.0002347835100642  0.0000000000000000   1   3   1  11
 -0.0003303288754897  0.0000000000000000   1   3   1  13
  0.0001745762670002  0.0000000000000000   1   3   2   2
  0.0256113944748116  0.0000000000000000   1   3   2   4
 -0.0002962724566443  0.0000000000000000   1   3   2   6
  0.0001343092054146  0.0000000000000000   1   3   2   8
  0.0002069042292004  0.0000000000000000   1   3   2  10
 -0.0002347835100642  0.0000000000000000   1   3   2  12
 -0.0003303288754897  0.0000000000000000   1   3   2  14
  0.0256113944748116  0.0000000000000000   1   3   3   1
 -0.0000678408068684  0.0000000000000000   1   3   3   3
 -0.0000022852856190  0.0000000000000000   1   3   3   5
  0.0000556832156338  0.0000000000000000   1   3   3   7
  0.0000481346259745  0.0000000000000000   1   3   3   9
  0.0000274760262451  0.0000000000000000   1   3   3  11
 -0.0000036576491459  0.0000000000000000   1   3   3  13
  0.0256113944748116  0.0000000000000000   1   3   4   2
 -0.0000678408068684  0.0000000000000000   1   3   4   4
 -0.0000022852856190  0.0000000000000000   1   3   4   6
  0.0000556832156338  0.0000000000000000   1   3   4   8
  0.0000481346259745  0.0000000000000000   1   3   4  10
  0.0000274760262451  0.0000000000000000   1   3   4  12
 -0.0000036576491459  0.0000000000000000   1   3   4  14
 -0.0002962724566443  0.0000000000000000   1   3   5   1
 -0.0000022852856190  0.0000000000000000   1   3   5   3
 -0.0000190205451807  0.0000000000000000   1   3   5   5
 -0.0024555170186492  0.0000000000000000   1   3   5   7
 -0.0003143196368353  0.0000000000000000   1   3   5   9
 -0.0000087182772258  0.0000000000000000   1   3   5  11
  0.0000712761254952  0.0000000000000000   1   3   5  13
 -0.0002962724566443  0.0000000000000000   1   3   6   2
 -0.0000022852856190  0.0000000000000000   1   3   6   4
 -0.0000190205451807  0.0000000000000000   1   3   6   6
 -0.0024555170186492  0.0000000000000000   1   3   6   8
 -0.0003143196368353  0.0000000000000000   1   3   6  10
 -0.0000087182772258  0.0000000000000000   1   3   6  12
  0.0000712761254952  0.0000000000000000   1   3   6  14
  0.0001343092054146  0.0000000000000000   1   3   7   1
  0.0000556832156338  0.0000000000000000   1   3   7   3
 -0.0024555170186492  0.0000000000000000   1   3   7   5
  0.0000735220382975  0.0000000000000000   1   3   7   7
 -0.0000074996420351  0.0000000000000000   1   3   7   9
  0.0013712887589244  0.0000000000000000   1   3   7  11
  0.0008134698202003  0.0000000000000000   1   3   7  13
  0.0001343092054146  0.0000000000000000   1   3   8   2
  0.0000556832156338  0.0000000000000000   1   3   8   4
 -0.0024555170186492  0.0000000000000000   1   3   8   6
  0.0000735220382975  0.0000000000000000   1   3   8   8
 -0.0000074996420351  0.0000000000000000   1   3   8  10
  0.0013712887589244  0.0000000000000000   1   3   8  12
  0.0008134698202003  0.0000000000000000   1   3   8  14
  0.0002069042292004  0.0000000000000000   1   3   9   1
  0.0000481346259745  0.0000000000000000   1   3   9   3
 -0.0003143196368353  0.0000000000000000   1   3   9   5
 -0.0000074996420351  0.0000000000000000   1   3   9   7
  0.0000109086194424  0.0000000000000000   1   3   9   9
 -0.0017318396283633  0.0000000000000000   1   3   9  11
  0.0022209378799870  0.0000000000000000   1   3   9  13
  0.0002069042292004  0.0000000000000000   1   3  10   2
  0.0000481346259745  0.0000000000000000   1   3  10   4
 -0.0003143196368353  0.0000000000000000   1   3  10   6
 -0.0000074996420351  0.0000000000000000   1   3  10   8
  0.0000109086194424  0.0000000000000000   1   3  10  10
 -0.0017318396283633  0.0000000000000000   1   3  10  12
  0.0022209378799870  0.0000000000000000   1   3  10  14
 -0.0002347835100642  0.0000000000000000   1   3  11   1
  0.0000274760262451  0.0000000000000000   1   3  11   3
 -0.0000087182772258  0.0000000000000000   1   3  11   5
  0.0013712887589244  0.0000000000000000   1   3  11   7
 -0.0017318396283633  0.0000000000000000   1   3  11   9
 -0.0000634895840357  0.0000000000000000   1   3  11  11
  0.0001139982104578  0.0000000000000000   1   3  11  13
 -0.0002347835100642  0.0000000000000000   1   3  12   2
  0.0000274760262451  0.0000000000000000   1   3  12   4
 -0.0000087182772258  0.0000000000000000   1   3  12   6
  0.0013712887589244  0.0000000000000000   1   3  12   8
 -0.0017318396283633  0.0000000000000000   1   3  12  10
 -0.0000634895840357  0.0000000000000000   1   3  12  12
  0.0001139982104578  0.0000000000000000   1   3  12  14
 -0.0003303288754897  0.0000000000000000   1   3  13   1
 -0.0000036576491459  0.0000000000000000   1   3  13   3
  0.0000712761254952  0.0000000000000000   1   3  13   5
  0.0008134698202003  0.0000000000000000   1   3  13   7
  0.0022209378799870  0.0000000000000000   1   3  13   9
  0.0001139982104578  0.0000000000000000   1   3  13  11
  0.0001113899692356  0.0000000000000000   1   3  13  13
 -0.0003303288754897  0.0000000000000000   1   3  14   2
 -0.0000036576491459  0.0000000000000000   1   3  14   4
  0.0000712761254952  0.0000000000000000   1   3  14   6
  0.0008134698202003  0.0000000000000000   1   3  14   8
  0.0022209378799870  0.0000000000000000   1   3  14  10
  0.0001139982104578  0.0000000000000000   1   3  14  12
  0.0001113899692356  0.0000000000000000   1   3  14  14
  0.0003168699343511  0.0000000000000000   1   5   1   1
 -0.0002962724566443  0.0000000000000000   1   5   1   3
  0.0263637247079251  0.0000000000000000   1   5   1   5
  0.0003701037518719  0.0000000000000000   1   5   1   7
 -0.0024618223277366  0.0000000000000000   1   5   1   9
 -0.0055196555678003  0.0000000000000000   1   5   1  11
 -0.0055809990378311  0.0000000000000000   1   5   1  13
  0.0003168699343511  0.0000000000000000   1   5   2   2
 -0.0002962724566443  0.0000000000000000   1   5   2   4
  0.0263637247079251  0.0000000000000000   1   5   2   6
  0.0003701037518719  0.0000000000000000   1   5   2   8
 -0.0024618223277366  0.0000000000000000   1   5   2  10
 -0.0055196555678003  0.0000000000000000   1   5   2  12
 -0.0055809990378311  0.0000000000000000   1   5   2  14
 -0.0002962724566443  0.0000000000000000   1   5   3   1
 -0.0000512082367253  0.0000000000000000   1   5   3   3
  0.0001028819701367  0.0000000000000000   1   5   3   5
  0.0153928244927862  0.0000000000000000   1   5   3   7
  0.0021002752616190  0.0000000000000000   1   5   3   9
  0.0026055400329856  0.0000000000000000   1   5   3  11
 -0.0024230175010612  0.0000000000000000   1   5   3  13
 -0.0002962724566443  0.0000000000000000   1   5   4   2
 -0.0000512082367253  0.0000000000000000   1   5   4   4
  0.0001028819701367  0.0000000000000000   1   5   4   6
  0.0153928244927862  0.0000000000000000   1   5   4   8
  0.0021002752616190  0.0000000000000000   1   5   4  10
  0.0026055400329856  0.0000000000000000   1   5   4  12
 -0.0024230175010612  0.0000000000000000   1   5   4  14
  0.0263637247079251  0.0000000000000000   1   5   5   1
  0.0001028819701367  0.0000000000000000   1   5   5   3
  0.0000293863656156  0.0000000000000000   1   5   5   5
  0.0043657096063535  0.0000000000000000   1   5   5   7
  0.0006320873299112  0.0000000000000000   1   5   5   9
  0.0043816562893773  0.0000000000000000   1   5   5  11
 -0.0040953071273694  0.0000000000000000   1   5   5  13
  0.0263637247079251  0.0000000000000000   1   5   6   2
  0.0001028819701367  0.0000000000000000   1   5   6   4
  0.0000293863656156  0.0000000000000000   1   5   6   6
  0.0043657096063535  0.0000000000000000   1   5   6   8
  0.0006320873299112  0.0000000000000000   1   5   6  10
  0.0043816562893773  0.0000000000000000   1   5   6  12
 -0.0040953071273694  0.0000000000000000   1   5   6  14
  0.0003701037518719  0.0000000000000000   1   5   7   1
  0.0153928244927862  0.0000000000000000   1   5   7   3
  0.0043657096063535  0.0000000000000000   1   5   7   5
 -0.0011948165591037  0.0000000000000000   1   5   7   7
  0.0033766712863539  0.0000000000000000   1   5   7   9
  0.0045959012344364  0.0000000000000000   1   5   7  11
  0.0045241796655051  0.0000000000000000   1   5   7  13
  0.0003701037518719  0.0000000000000000   1   5   8   2
  0.0153928244927862  0.0000000000000000   1   5   8   4
  0.0043657096063535  0.0000000000000000   1   5   8   6
 -0.0011948165591037  0.0000000000000000   1   5   8   8
  0.0033766712863539  0.0000000000000000   1   5   8  10
  0.0045959012344364  0.0000000000000000   1   5   8  12
  0.0045241796655051  0.0000000000000000   1   5   8  14
 -0.0024618223277366  0.0000000000000000   1   5   9   1
  0.0021002752616190  0.0000000000000000   1   5   9   3
  0.0006320873299112  0.0000000000000000   1   5   9   5
  0.0033766712863539  0.0000000000000000   1   5   9   7
  0.0009483679403724  0.0000000000000000   1   5   9   9
  0.0009778554235494  0.0000000000000000   1   5   9  11
  0.0004432870771751  0.0000000000000000   1   5   9  13
 -0.0024618223277366  0.0000000000000000   1   5  10   2
  0.0021002752616190  0.0000000000000000   1   5  10   4
  0.0006320873299112  0.0000000000000000   1   5  10   6
  0.0033766712863539  0.0000000000000000   1   5  10   8
  0.0009483679403724  0.0000000000000000   1   5  10  10
  0.0009778554235494  0.0000000000000000   1   5  10  12
  0.0004432870771751  0.0000000000000000   1   5  10  14
 -0.0055196555678003  0.0000000000000000   1   5  11   1
  0.0026055400329856  0.0000000000000000   1   5  11   3
  0.0043816562893773  0.0000000000000000   1   5  11   5
  0.0045959012344364  0.0000000000000000   1   5  11   7
  0.0009778554235494  0.0000000000000000   1   5  11   9
 -0.0115937467674942  0.0000000000000000   1   5  11  11
  0.0002098777340260  0.0000000000000000   1   5  11  13
 -0.0055196555678003  0.0000000000000000   1   5  12   2
  0.0026055400329856  0.0000000000000000   1   5  12   4
  0.0043816562893773  0.0000000000000000   1   5  12   6
  0.0045959012344364  0.0000000000000000   1   5  12   8
  0.0009778554235494  0.0000000000000000   1   5  12  10
 -0.0115937467674942  0.0000000000000000   1   5  12  12
  0.0002098777340260  0.0000000000000000   1   5  12  14
 -0.0055809990378311  0.0000000000000000   1   5  13   1
 -0.0024230175010612  0.0000000000000000   1   5  13   3
 -0.0040953071273694  0.0000000000000000   1   5  13   5
  0.0045241796655051  0.0000000000000000   1   5  13   7
  0.0004432870771751  0.0000000000000000   1   5  13   9
  0.0002098777340260  0.0000000000000000   1   5  13  11
  0.0117746982971008  0.0000000000000000   1   5  13  13
 -0.0055809990378311  0.0000000000000000   1   5  14   2
 -0.0024230175010612  0.0000000000000000   1   5  14   4
 -0.0040953071273694  0.0000000000000000   1   5  14   6
  0.0045241796655051  0.0000000000000000   1   5  14   8
  0.0004432870771751  0.0000000000000000   1   5  14  10
  0.0002098777340260  0.0000000000000000   1   5  14  12
  0.0117746982971008  0.0000000000000000   1   5  14  14
 -0.0001472145345994  0.0000000000000000   1   7   1   1
  0.0001343092054147  0.0000000000000000   1   7   1   3
  0.0003701037518719  0.0000000000000000   1   7   1   5
  0.0397907954585780  0.0000000000000000   1   7   1   7
  0.0002171584776177  0.0000000000000000   1   7   1   9
  0.0024488969741770  0.0000000000000000   1   7   1  11
 -0.0024816399170017  0.0000000000000000   1   7   1  13
 -0.0001472145345994  0.0000000000000000   1   7   2   2
  0.0001343092054147  0.0000000000000000   1   7   2   4
  0.0003701037518719  0.0000000000000000   1   7   2   6
  0.0397907954585780  0.0000000000000000   1   7   2   8
  0.0002171584776177  0.0000000000000000   1   7   2  10
  0.0024488969741770  0.0000000000000000   1   7   2  12
 -0.0024816399170017  0.0000000000000000   1   7   2  14
  0.0001343092054147  0.0000000000000000   1   7   3   1
  0.0000821639373985  0.0000000000000000   1   7   3   3
  0.0041774013779779  0.0000000000000000   1   7   3   5
  0.0000476414583925  0.0000000000000000   1   7   3   7
 -0.0032100809675931  0.0000000000000000   1   7   3   9
 -0.0026301007549094  0.0000000000000000   1   7   3  11
 -0.0016889444821911  0.0000000000000000   1   7   3  13
  0.0001343092054147  0.0000000000000000   1   7   4   2
  0.0000821639373985  0.0000000000000000   1   7   4   4
  0.0041774013779779  0.0000000000000000   1   7   4   6
  0.0000476414583925  0.0000000000000000   1   7   4   8
 -0.0032100809675931  0.0000000000000000   1   7   4  10
 -0.0026301007549094  0.0000000000000000   1   7   4  12
 -0.0016889444821911  0.0000000000000000   1   7   4  14
  0.0003701037518719  0.0000000000000000   1   7   5   1
  0.0041774013779779  0.0000000000000000   1   7   5   3
 -0.0060148219326900  0.0000000000000000   1   7   5   5
  0.0033162833423698  0.0000000000000000   1   7   5   7
  0.0015171518290753  0.0000000000000000   1   7   5   9
 -0.0036573282757680  0.0000000000000000   1   7   5  11
 -0.0056500954735276  0.0000000000000000   1   7   5  13
  0.0003701037518719  0.0000000000000000   1   7   6   2
  0.0041774013779779  0.0000000000000000   1   7   6   4
 -0.0060148219326900  0.0000000000000000   1   7   6   6
  0.0033162833423698  0.0000000000000000   1   7   6   8
  0.0015171518290753  0.0000000000000000   1   7   6  10
 -0.0036573282757680  0.0000000000000000   1   7   6  12
 -0.0056500954735276  0.0000000000000000   1   7   6  14
  0.0397907954585780  0.0000000000000000   1   7   7   1
  0.0000476414583925  0.0000000000000000   1   7   7   3
  0.0033162833423698  0.0000000000000000   1   7   7   5
  0.0085869354436500  0.0000000000000000   1   7   7   7
  0.0034557391501554  0.0000000000000000   1   7   7   9
 -0.0115602581886487  0.0000000000000000   1   7   7  11
  0.0084999826097111  0.0000000000000000   1   7   7  13
  0.0397907954585780  0.0000000000000000   1   7   8   2
  0.0000476414583925  0.0000000000000000   1   7   8   4
  0.0033162833423698  0.0000000000000000   1   7   8   6
  0.0085869354436500  0.0000000000000000   1   7   8   8
  0.0034557391501554  0.0000000000000000   1   7   8  10
 -0.0115602581886487  0.0000000000000000   1   7   8  12
  0.0084999826097111  0.0000000000000000   1   7   8  14
  0.0002171584776177  0.0000000000000000   1   7   9   1
 -0.0032100809675931  0.0000000000000000   1   7   9   3
  0.0015171518290753  0.0000000000000000   1   7   9   5
  0.0034557391501554  0.0000000000000000   1   7   9   7
 -0.0095287818178191  0.0000000000000000   1   7   9   9
  0.0161482086172116  0.0000000000000000   1   7   9  11
  0.0214833245699672  0.0000000000000000   1   7   9  13
  0.0002171584776177  0.0000000000000000   1   7  10   2
 -0.0032100809675931  0.0000000000000000   1   7  10   4
  0.0015171518290753  0.0000000000000000   1   7  10   6
  0.0034557391501554  0.0000000000000000   1   7  10   8
 -0.0095287818178191  0.0000000000000000   1   7  10  10
  0.0161482086172116  0.0000000000000000   1   7  10  12
  0.0214833245699672  0.0000000000000000   1   7  10  14
  0.0024488969741770  0.0000000000000000   1   7  11   1
 -0.0026301007549094  0.0000000000000000   1   7  11   3
 -0.0036573282757680  0.0000000000000000   1   7  11   5
 -0.0115602581886487  0.0000000000000000   1   7  11   7
  0.0161482086172116  0.0000000000000000   1   7  11   9
  0.0041064704885978  0.0000000000000000   1   7  11  11
  0.0098164066589435  0.0000000000000000   1   7  11  13
  0.0024488969741770  0.0000000000000000   1   7  12   2
 -0.0026301007549094  0.0000000000000000   1   7  12   4
 -0.0036573282757680  0.0000000000000000   1   7  12   6
 -0.0115602581886487  0.0000000000000000   1   7  12   8
  0.0161482086172116  0.0000000000000000   1   7  12  10
  0.0041064704885978  0.0000000000000000   1   7  12  12
  0.0098164066589435  0.0000000000000000   1   7  12  14
 -0.0024816399170017  0.0000000000000000   1   7  13   1
 -0.0016889444821911  0.0000000000000000   1   7  13   3
 -0.0056500954735276  0.0000000000000000   1   7  13   5
  0.0084999826097111  0.0000000000000000   1   7  13   7
  0.0214833245699672  0.0000000000000000   1   7  13   9
  0.0098164066589435  0.0000000000000000   1   7  13  11
  0.0028442538141540  0.0000000000000000   1   7  13  13
 -0.0024816399170017  0.0000000000000000   1   7  14   2
 -0.0016889444821911  0.0000000000000000   1   7  14   4
 -0.0056500954735276  0.0000000000000000   1   7  14   6
  0.0084999826097111  0.0000000000000000   1   7  14   8
  0.0214833245699672  0.0000000000000000   1   7  14  10
  0.0098164066589435  0.0000000000000000   1   7  14  12
  0.0028442538141540  0.0000000000000000   1   7  14  14
  0.0001183488886772  0.0000000000000000   1   9   1   1
  0.0002069042292004  0.0000000000000000   1   9   1   3
 -0.0024618223277366  0.0000000000000000   1   9   1   5
  0.0002171584776178  0.0000000000000000   1   9   1   7
  0.0395180574201512  0.0000000000000000   1   9   1   9
  0.0019895520245547  0.0000000000000000   1   9   1  11
  0.0012540952049943  0.0000000000000000   1   9   1  13
  0.0001183488886772  0.0000000000000000   1   9   2   2
  0.0002069042292004  0.0000000000000000   1   9   2   4
 -0.0024618223277366  0.0000000000000000   1   9   2   6
  0.0002171584776178  0.0000000000000000   1   9   2   8
  0.0395180574201512  0.0000000000000000   1   9   2  10
  0.0019895520245547  0.0000000000000000   1   9   2  12
  0.0012540952049943  0.0000000000000000   1   9   2  14
  0.0002069042292004  0.0000000000000000   1   9   3   1
  0.0000453270425861  0.0000000000000000   1   9   3   3
  0.0005977313621762  0.0000000000000000   1   9   3   5
  0.0033202530909661  0.0000000000000000   1   9   3   7
  0.0000887343495098  0.0000000000000000   1   9   3   9
  0.0034187752975726  0.0000000000000000   1   9   3  11
 -0.0039263279374189  0.0000000000000000   1   9   3  13
  0.0002069042292004  0.0000000000000000   1   9   4   2
  0.0000453270425861  0.0000000000000000   1   9   4   4
  0.0005977313621762  0.0000000000000000   1   9   4   6
  0.0033202530909661  0.0000000000000000   1   9   4   8
  0.0000887343495098  0.0000000000000000   1   9   4  10
  0.0034187752975726  0.0000000000000000   1   9   4  12
 -0.0039263279374189  0.0000000000000000   1   9   4  14
 -0.0024618223277366  0.0000000000000000   1   9   5   1
  0.0005977313621762  0.0000000000000000   1   9   5   3
 -0.0010163560010345  0.0000000000000000   1   9   5   5
 -0.0245561234530194  0.0000000000000000   1   9   5   7
 -0.0033316582484568  0.0000000000000000   1   9   5   9
 -0.0088217681714685  0.0000000000000000   1   9   5  11
  0.0071920780655102  0.0000000000000000   1   9   5  13
 -0.0024618223277366  0.0000000000000000   1   9   6   2
  0.0005977313621762  0.0000000000000000   1   9   6   4
 -0.0010163560010345  0.0000000000000000   1   9   6   6
 -0.0245561234530194  0.0000000000000000   1   9   6   8
 -0.0033316582484568  0.0000000000000000   1   9   6  10
 -0.0088217681714685  0.0000000000000000   1   9   6  12
  0.0071920780655102  0.0000000000000000   1   9   6  14
  0.0002171584776178  0.0000000000000000   1   9   7   1
  0.0033202530909661  0.0000000000000000   1   9   7   3
 -0.0245561234530194  0.0000000000000000   1   9   7   5
  0.0041423721609729  0.0000000000000000   1   9   7   7
 -0.0080129575671979  0.0000000000000000   1   9   7   9
 -0.0104609026648805  0.0000000000000000   1   9   7  11
 -0.0048089154682246  0.0000000000000000   1   9   7  13
  0.0002171584776178  0.0000000000000000   1   9   8   2
  0.0033202530909661  0.0000000000000000   1   9   8   4
 -0.0245561234530194  0.0000000000000000   1   9   8   6
  0.0041423721609729  0.0000000000000000   1   9   8   8
 -0.0080129575671979  0.0000000000000000   1   9   8  10
 -0.0104609026648805  0.0000000000000000   1   9   8  12
 -0.0048089154682246  0.0000000000000000   1   9   8  14
  0.0395180574201512  0.0000000000000000   1   9   9   1
  0.0000887343495098  0.0000000000000000   1   9   9   3
 -0.0033316582484568  0.0000000000000000   1   9   9   5
 -0.0080129575671979  0.0000000000000000   1   9   9   7
 -0.0037242914385538  0.0000000000000000   1   9   9   9
  0.0115885966439892  0.0000000000000000   1   9   9  11
 -0.0085773333801456  0.0000000000000000   1   9   9  13
  0.0395180574201512  0.0000000000000000   1   9  10   2
  0.0000887343495098  0.0000000000000000   1   9  10   4
 -0.0033316582484568  0.0000000000000000   1   9  10   6
 -0.0080129575671979  0.0000000000000000   1   9  10   8
 -0.0037242914385538  0.0000000000000000   1   9  10  10
  0.0115885966439892  0.0000000000000000   1   9  10  12
 -0.0085773333801456  0.0000000000000000   1   9  10  14
  0.0019895520245547  0.0000000000000000   1   9  11   1
  0.0034187752975726  0.0000000000000000   1   9  11   3
 -0.0088217681714685  0.0000000000000000   1   9  11   5
 -0.0104609026648805  0.0000000000000000   1   9  11   7
  0.0115885966439892  0.0000000000000000   1   9  11   9
 -0.0049486155581557  0.0000000000000000   1   9  11  11
  0.0014252984426538  0.0000000000000000   1   9  11  13
  0.0019895520245547  0.0000000000000000   1   9  12   2
  0.0034187752975726  0.0000000000000000   1   9  12   4
 -0.0088217681714685  0.0000000000000000   1   9  12   6
 -0.0104609026648805  0.0000000000000000   1   9  12   8
  0.0115885966439892  0.0000000000000000   1   9  12  10
 -0.0049486155581557  0.0000000000000000   1   9  12  12
  0.0014252984426538  0.0000000000000000   1   9  12  14
  0.0012540952049943  0.0000000000000000   1   9  13   1
 -0.0039263279374189  0.0000000000000000   1   9  13   3
  0.0071920780655102  0.0000000000000000   1   9  13   5
 -0.0048089154682246  0.0000000000000000   1   9  13   7
 -0.0085773333801456  0.0000000000000000   1   9  13   9
  0.0014252984426538  0.0000000000000000   1   9  13  11
  0.0056045110149855  0.0000000000000000   1   9  13  13
  0.0012540952049943  0.0000000000000000   1   9  14   2
 -0.0039263279374189  0.0000000000000000   1   9  14   4
  0.0071920780655102  0.0000000000000000   1   9  14   6
 -0.0048089154682246  0.0000000000000000   1   9  14   8
 -0.0085773333801456  0.0000000000000000   1   9  14  10
  0.0014252984426538  0.0000000000000000   1   9  14  12
  0.0056045110149855  0.0000000000000000   1   9  14  14
  0.0001159250098573  0.0000000000000000   1  11   1   1
 -0.0002347835100641  0.0000000000000000   1  11   1   3
 -0.0055196555678002  0.0000000000000000   1  11   1   5
  0.0024488969741769  0.0000000000000000   1  11   1   7
  0.0019895520245547  0.0000000000000000   1  11   1   9
  0.0261545520989410  0.0000000000000000   1  11   1  11
 -0.0055199376346028  0.0000000000000000   1  11   1  13
  0.0001159250098573  0.0000000000000000   1  11   2   2
 -0.0002347835100641  0.0000000000000000   1  11   2   4
 -0.0055196555678002  0.0000000000000000   1  11   2   6
  0.0024488969741769  0.0000000000000000   1  11   2   8
  0.0019895520245547  0.0000000000000000   1  11   2  10
  0.0261545520989410  0.0000000000000000   1  11   2  12
 -0.0055199376346028  0.0000000000000000   1  11   2  14
 -0.0002347835100641  0.0000000000000000   1  11   3   1
  0.0000115667312356  0.0000000000000000   1  11   3   3
 -0.0023224356830220  0.0000000000000000   1  11   3   5
 -0.0093944756680548  0.0000000000000000   1  11   3   7
  0.0122254226655822  0.0000000000000000   1  11   3   9
  0.0001145301773897  0.0000000000000000   1  11   3  11
  0.0025185180620361  0.0000000000000000   1  11   3  13
 -0.0002347835100641  0.0000000000000000   1  11   4   2
  0.0000115667312356  0.0000000000000000   1  11   4   4
 -0.0023224356830220  0.0000000000000000   1  11   4   6
 -0.0093944756680548  0.0000000000000000   1  11   4   8
  0.0122254226655822  0.0000000000000000   1  11   4  10
  0.0001145301773897  0.0000000000000000   1  11   4  12
  0.0025185180620361  0.0000000000000000   1  11   4  14
 -0.0055196555678002  0.0000000000000000   1  11   5   1
 -0.0023224356830220  0.0000000000000000   1  11   5   3
  0.0117622507568660  0.0000000000000000   1  11   5   5
 -0.0029794391188986  0.0000000000000000   1  11   5   7
  0.0034376010829568  0.0000000000000000   1  11   5   9
 -0.0041632402843118  0.0000000000000000   1  11   5  11